                         Program Version 6.0.1  -  RELEASE   -
|  1> ! RKS PBE0 def2-TZVP
|  2>
|  3> %maxcore 600
|  4>
|  5> *xyzfile -2 1 methanol.xyz
|  6>
|  7>                          ****END OF INPUT****

CARTESIAN COORDINATES (ANGSTROEM)
---------------------------------
  C     -4.891260    3.297700    0.000290
  H     -5.282130    3.054940   -1.011610
  O     -3.493070    3.284290   -0.003280
  H     -5.282130    2.583740    0.757360
  H     -5.239980    4.315400    0.271380
  H     -3.229590    2.359810   -0.249530

 Total Charge           Charge          ....   -2
 Multiplicity           Mult            ....    1
 Number of Electrons    NEL             ....   20
 Basis Dimension        Dim             ....   86

ORBITAL ENERGIES
----------------

  NO   OCC          E(Eh)            E(eV)
   0   2.0000     -18.766034      -510.6498
   1   2.0000      -9.821254      -267.2499
   2   2.0000      -0.616740       -16.7824
   3   2.0000      -0.263280        -7.1642
   4   2.0000      -0.089010        -2.4221
   5   2.0000      -0.027751        -0.7552
   6   2.0000      -0.019862        -0.5405
   7   2.0000       0.075670         2.0591
   8   2.0000       0.138757         3.7758
   9   2.0000       0.347872         9.4661
  10   0.0000       0.418493        11.3878
  11   0.0000       0.467013        12.7081
  12   0.0000       0.475128        12.9289
  13   0.0000       0.510098        13.8805
  14   0.0000       0.591789        16.1034

MULLIKEN ATOMIC CHARGES
-----------------------
   0 C :    2.762815
   1 H :   -1.286053
   2 O :   -0.406103
   3 H :   -1.285917
   4 H :   -0.943761
   5 H :   -0.840981
Sum of atomic charges:   -2.0000000

LOEWDIN ATOMIC CHARGES
----------------------
   0 C :   -0.624368
   1 H :   -0.281643
   2 O :   -0.213436
   3 H :   -0.281591
   4 H :   -0.203008
   5 H :   -0.395953

  Mayer bond orders larger than 0.100000
B(  0-C ,  1-H ) :  -3.4163 B(  0-C ,  2-O ) :   1.5125 B(  0-C ,  3-H ) :  -3.4158
B(  0-C ,  4-H ) :  -2.1820 B(  0-C ,  5-H ) :  -3.5491 B(  1-H ,  2-O ) :  -0.2086
B(  1-H ,  3-H ) :   1.7970 B(  1-H ,  4-H ) :   1.2557 B(  1-H ,  5-H ) :   1.6901
B(  2-O ,  3-H ) :  -0.2085 B(  2-O ,  4-H ) :  -0.1207 B(  2-O ,  5-H ) :   0.3953
B(  3-H ,  4-H ) :   1.2555 B(  3-H ,  5-H ) :   1.6900 B(  4-H ,  5-H ) :   1.2149

FINAL SINGLE POINT ENERGY      -115.248406226799

DIPOLE MOMENT
-------------

Method             : SCF
Type of density    : Electron Density
Multiplicity       :   1
Irrep              :   0
Energy             :  -115.2484062267985792 Eh
Relativity type    :
Basis              : AO
                                X                 Y                 Z
Electronic contribution:      3.054982686       2.148670398       0.572501996
Nuclear contribution   :     -2.174132463      -0.693736400      -0.184775882
                        -----------------------------------------
Total Dipole Moment    :      0.880850223       1.454933998       0.387726114
                        -----------------------------------------
Magnitude (a.u.)       :      1.744437329
Magnitude (Debye)      :      4.434007313

Rotational constants in cm-1:             4.076050             0.847800             0.816681
Rotational constants in MHz :        122196.908803         25416.417758         24483.467785

                             ****ORCA TERMINATED NORMALLY****
TOTAL RUN TIME: 0 days 0 hours 0 minutes 4 seconds 632 msec
