 Gaussian 16, Revision A.03,
 Gaussian 16:  ES64L-G16RevA.03 25-Dec-2016

 -------------------
 #p PBE1PBE/def2TZVP
 -------------------

 --------
 methanol
 --------
 Symbolic Z-matrix:
 Charge =  0 Multiplicity = 1

                         Standard orientation:
 ---------------------------------------------------------------------
 Center     Atomic      Atomic             Coordinates (Angstroms)
 Number     Number       Type             X           Y           Z
 ---------------------------------------------------------------------
      1          6           0       -0.652976   -0.023082   -0.000002
      2          1           0       -0.980673   -0.562018   -0.915325
      3          8           0        0.736503    0.133360    0.000000
      4          1           0       -0.980673   -0.562026    0.915327
      5          1           0       -1.127317    0.979819    0.000008
      6          1           0        1.114494   -0.784163   -0.000000
 ---------------------------------------------------------------------

 SCF Done:  E(RPBE1PBE) =  -115.635055578     A.U. after   11 cycles

 The electronic state is 1-A.
 Alpha  occ. eigenvalues --  -19.20556 -10.26302  -1.04945  -0.69347  -0.52053
 Alpha  occ. eigenvalues --   -0.45663  -0.44135  -0.34740  -0.28727
 Alpha virt. eigenvalues --    0.03499   0.08144   0.12676   0.12770   0.14630
 Alpha virt. eigenvalues --    0.23094   0.23477   0.32607   0.37396   0.39232
 Alpha virt. eigenvalues --    0.45301   0.45678   0.47833   0.51216   0.51672

 Mulliken charges:
               1
     1  C   -0.199109
     2  H    0.107477
     3  O   -0.453443
     4  H    0.107476
     5  H    0.125613
     6  H    0.311987
 Sum of Mulliken charges =  -0.00000

 Dipole moment (field-independent basis, Debye):
    X=             -0.7070    Y=             -1.5298    Z=             -0.0000  Tot=              1.6853
 Quadrupole moment (field-independent basis, Debye-Ang):
   XX=            -13.0874   YY=            -12.1626   ZZ=            -13.7578
   XY=             -2.3616   XZ=              0.0000   YZ=              0.0000

 Normal termination of Gaussian 16 at Mon Dec 23 23:23:38 2024.
